[Molden Format]
[Geometries] (XYZ)
16

C       -1.060017      -1.517146       0.052887
C       -1.829554      -0.594086      -0.539688
C       -2.012604       0.793709      -0.089780
C       -1.097406       1.540951       0.541104
H       -2.400633      -0.882356      -1.423216
H       -0.513652      -1.303832       0.968289
H       -0.966890      -2.521220      -0.351177
H       -1.320890       2.556285       0.856673
H       -0.094545       1.173901       0.744815
H       -2.981424       1.238281      -0.320708
C        3.018414      -0.332740       0.534205
C        2.482680       0.169904      -0.576610
H        2.608491      -1.215917       1.019022
H        3.891712       0.112541       1.005362
H        2.895264       1.050961      -1.063014
H        1.608060      -0.276406      -1.043738
16

C       -0.894168      -1.458689       0.062934
C       -1.751435      -0.526403      -0.451376
C       -1.888085       0.820049      -0.078095
C       -0.931927       1.571816       0.455189
H       -2.442005      -0.866445      -1.230208
H       -0.435527      -1.362924       1.044903
H       -0.784000      -2.422981      -0.442030
H       -1.108674       2.619669       0.663444
H        0.011072       1.196222       0.837860
H       -2.869771       1.264450      -0.253571
C        2.843427      -0.370609       0.453329
C        2.295494       0.208365      -0.614682
H        2.373700      -1.170651       1.023828
H        3.748187      -0.038475       0.968664
H        2.705815       0.998480      -1.262257
H        1.385314      -0.338428      -0.782932
16

C       -0.056125      -1.634159       0.004530
C       -1.310650      -0.759668      -0.132678
C       -1.363450       0.647481      -0.071554
C       -0.205743       1.600788       0.001106
H       -2.251346      -1.289547      -0.294665
H       -0.094174      -2.310570       0.870455
H        0.146479      -2.223983      -0.891830
H       -0.392323       2.501335      -0.600187
H        0.105428       1.943907       1.002050
H       -2.351305       1.116638      -0.108312
C        1.409018      -0.515965       0.439209
C        1.347600       0.711829      -0.438566
H        1.215801      -0.468451       1.517867
H        2.400333      -1.155240       0.483393
H        1.594722       0.566273      -1.527364
H        2.042365       1.174903       0.055861
16

C        0.018565      -1.505102       0.071755
C       -1.254726      -0.702912      -0.048283
C       -1.285511       0.633242      -0.085278
C       -0.048111       1.496966      -0.044220
H       -2.187944      -1.262829      -0.104375
H       -0.121338      -2.316354       0.799873
H        0.226636      -2.006431      -0.887349
H       -0.137620       2.309803      -0.778494
H        0.019570       1.995007       0.936447
H       -2.244815       1.145933      -0.151545
C        1.216014      -0.631689       0.479480
C        1.229452       0.684821      -0.310339
H        1.148348      -0.405323       1.552809
H        2.153272      -1.182597       0.331990
H        1.295645       0.458374      -1.383898
H        2.115916       1.280139      -0.058569
[GEOCONV]
energy
0.0
0.00451986541157
-45.3913334059
-45.3935395799
max-force
0.0
3.7390665435e-05
2.25767921149e-05
0.0
max-step
1000.0
1000.0
1000.0
1000.0
