[Molden Format]
[Geometries] (XYZ)
16

C       -1.060017      -1.517146       0.052887
C       -1.829554      -0.594086      -0.539688
C       -2.012604       0.793709      -0.089780
C       -1.097406       1.540951       0.541104
H       -2.400633      -0.882356      -1.423216
H       -0.513652      -1.303832       0.968289
H       -0.966890      -2.521220      -0.351177
H       -1.320890       2.556285       0.856673
H       -0.094545       1.173901       0.744815
H       -2.981424       1.238281      -0.320708
C        3.018414      -0.332740       0.534205
C        2.482680       0.169904      -0.576610
H        2.608491      -1.215917       1.019022
H        3.891712       0.112541       1.005362
H        2.895264       1.050961      -1.063014
H        1.608060      -0.276406      -1.043738
16

C       -0.869036      -1.450981       0.064185
C       -1.738510      -0.515980      -0.436406
C       -1.871081       0.824176      -0.077201
C       -0.908755       1.574986       0.439030
H       -2.445489      -0.863991      -1.197628
H       -0.422538      -1.376465       1.053887
H       -0.759067      -2.407479      -0.457345
H       -1.078265       2.627197       0.628406
H        0.022749       1.200865       0.849351
H       -2.854142       1.268619      -0.245218
C        2.815894      -0.378310       0.440000
C        2.267133       0.215766      -0.619976
H        2.338650      -1.164058       1.025183
H        3.727154      -0.067331       0.961966
H        2.674059       0.992176      -1.291227
H        1.360974      -0.337983      -0.733820
16

C       -0.702381      -1.412274       0.068549
C       -1.648692      -0.460626      -0.345187
C       -1.759141       0.843113      -0.074964
C       -0.754128       1.583231       0.328962
H       -2.452697      -0.859818      -0.978602
H       -0.339837      -1.482657       1.094841
H       -0.599224      -2.312465      -0.554761
H       -0.878011       2.655642       0.384087
H        0.088198       1.241319       0.916992
H       -2.747697       1.292848      -0.194590
C        2.620413      -0.430410       0.357613
C        2.079695       0.266363      -0.650766
H        2.105149      -1.104851       1.048180
H        3.575444      -0.278840       0.907316
H        2.444243       0.946225      -1.468142
H        1.241165      -0.256333      -0.397887
16

C       -0.226587      -1.643026      -0.006502
C       -1.394338      -0.717722      -0.181790
C       -1.456654       0.659466      -0.070063
C       -0.373650       1.599362       0.042101
H       -2.332880      -1.207593      -0.435514
H       -0.155624      -2.152460       0.965600
H       -0.085498      -2.324965      -0.844728
H       -0.600251       2.572735      -0.406191
H        0.144709       1.766356       1.002377
H       -2.455572       1.104942      -0.094506
C        1.716863      -0.466839       0.344966
C        1.547069       0.672597      -0.579778
H        1.381959      -0.618120       1.379521
H        2.729922      -1.047692       0.628893
H        1.981448       0.697124      -1.632647
H        1.791109       1.001561       0.222232
16

C       -0.072518      -1.638349       0.002082
C       -1.318412      -0.756272      -0.138183
C       -1.372689       0.648993      -0.071918
C       -0.223493       1.602465       0.003375
H       -2.259693      -1.281832      -0.308562
H       -0.100534      -2.297435       0.881615
H        0.122825      -2.238661      -0.888564
H       -0.415424       2.511379      -0.582761
H        0.110404       1.927381       1.003252
H       -2.362071       1.115136      -0.106461
C        1.440663      -0.510533       0.428995
C        1.366198       0.707369      -0.454834
H        1.231053      -0.484296       1.505439
H        2.436476      -1.147000       0.498837
H        1.633810       0.577244      -1.542622
H        2.017887       1.167197       0.080772
16

C        0.018565      -1.505102       0.071755
C       -1.254726      -0.702912      -0.048283
C       -1.285511       0.633242      -0.085278
C       -0.048111       1.496966      -0.044220
H       -2.187944      -1.262829      -0.104375
H       -0.121338      -2.316354       0.799873
H        0.226636      -2.006431      -0.887349
H       -0.137620       2.309803      -0.778494
H        0.019570       1.995007       0.936447
H       -2.244815       1.145933      -0.151545
C        1.216014      -0.631689       0.479480
C        1.229452       0.684821      -0.310339
H        1.148348      -0.405323       1.552809
H        2.153272      -1.182597       0.331990
H        1.295645       0.458374      -1.383898
H        2.115916       1.280139      -0.058569
[GEOCONV]
energy
0.0
0.0123877837614
0.107846431289
-45.3916890005
-45.3910882618
-45.3935395799
max-force
0.0
4.63611353197e-05
4.87744946127e-05
4.08749371835e-05
3.88932981772e-05
0.0
max-step
1000.0
1000.0
1000.0
1000.0
1000.0
1000.0
